64
Lattice="8.616714 0.0 0.0 0.0 8.616714 0.0 0.0 0.0 8.616714" Properties=species:S:1:pos:R:3:force_mask:L:1:force_component_sigma:R:3:forces:R:3 virial="-10.624342599501013 10.389130622388292 13.707314987343729 10.389130622388292 -5.75662785809173 27.997065526936613 13.707314987343729 27.997065526936613 -2.2857298089603635" config_type=bulk_amo energy_sigma=0.008 virial_sigma=0.8 energy=-439.1229762 free_energy=-439.17526914 pbc="T T T"
C        8.59081000       6.58382000       8.13612000  F       0.10000000       0.18761400       0.14219090      -0.41353500       1.87614000      -1.42190900
C        5.61693000       7.24978000       4.06605000  F       0.10000000       0.10000000       0.10000000       0.47241900      -0.81366300       0.23360100
C        6.25973000       8.13441000       0.88336000  F       0.22796380       0.54443400       0.10000000      -2.27963800      -5.44434000      -0.33574300
C        0.63518000       8.03209000       7.64576000  F       0.10000000       0.10000000       0.36770620       0.01279600       0.70283300       3.67706200
C        7.80652000       1.76183000       7.41252000  F       0.52086960       0.10000000       0.25881240       5.20869600       0.67337800      -2.58812400
C        0.43333000       2.06830000       1.15705000  F       0.10000000       0.10000000       0.33969370      -0.35556600       0.32834500       3.39693700
C        7.88026000       2.98262000       0.56088000  F       0.17821440       0.33727790       0.10000000       1.78214400      -3.37277900      -0.26926000
C        0.55639000       5.36042000       0.03505000  F       0.10000000       0.26921810       0.12095940      -0.75897500       2.69218100      -1.20959400
C        0.39222000       5.24298000       1.33802000  F       0.39746320       0.10000000       0.37813450      -3.97463200      -0.45324400       3.78134500
C        7.86772000       6.79009000       3.96187000  F       0.14476890       0.10000000       0.10000000       1.44768900      -0.05013500      -0.63863200
C        8.38259000       4.00852000       5.76789000  F       0.29862830       0.10000000       0.10000000       2.98628300       0.23242200      -0.99503500
C        7.14276000       6.30081000       7.95469000  F       0.28014380       0.10000000       0.10000000       2.80143800      -0.33880900      -0.99310700
C        0.07812000       7.79765000       1.85052000  F       0.31306840       0.37724020       0.14674550       3.13068400       3.77240200      -1.46745500
C        0.97730000       0.60384000       1.82858000  F       0.31738270       0.43356980       0.16548570      -3.17382700      -4.33569800      -1.65485700
C        6.86384000       7.82732000       3.80954000  F       0.10000000       0.10000000       0.31210800       0.83076200      -0.67019200      -3.12108000
C        7.58865000       0.71796000       5.55883000  F       0.10620200       0.17948290       0.10000000       1.06202000       1.79482900       0.26545100
C        2.32071000       1.41324000       8.03564000  F       0.12140710       0.72122780       0.42139820       1.21407100       7.21227800      -4.21398200
C        1.26387000       2.58887000       4.21251000  F       0.10000000       0.79667620       0.60765620       0.96660900      -7.96676200      -6.07656200
C        3.14545000       7.07582000       5.39582000  F       0.25490110       0.82806330       0.45441080       2.54901100      -8.28063300      -4.54410800
C        5.19378000       0.41726000       5.71934000  F       0.43309610       0.10000000       0.13183100       4.33096100      -0.25601000      -1.31831000
C        3.72365000       0.80541000       7.48054000  F       0.62144290       0.33346440       0.27730230       6.21442900       3.33464400       2.77302300
C        1.72765000       0.44184000       8.47171000  F       0.86312800       1.00192020       0.19674180      -8.63128000     -10.01920200       1.96741800
C        0.41479000       3.40832000       4.56545000  F       0.49036860       0.57305200       0.20092020      -4.90368600       5.73052000       2.00920200
C        0.47150000       0.86310000       5.58751000  F       0.12557680       0.12201300       0.43596200      -1.25576800      -1.22013000       4.35962000
C        7.45291000       4.99029000       2.14227000  F       0.26995950       0.23727310       0.10000000       2.69959500      -2.37273100       0.05044200
C        5.51867000       4.53845000       4.29997000  F       0.42959970       0.25614270       1.11309070      -4.29599700       2.56142700     -11.13090700
C        1.19453000       3.89962000       6.19387000  F       0.15906900       0.10000000       0.10232660       1.59069000       0.47355000      -1.02326600
C        2.66177000       3.65991000       5.54693000  F       0.21380920       0.17381490       0.51626320      -2.13809200      -1.73814900       5.16263200
C        2.36177000       6.02415000       3.81349000  F       0.59088960       0.13323040       0.20480150      -5.90889600       1.33230400      -2.04801500
C        2.32225000       1.39024000       1.63670000  F       0.18188190       0.10000000       0.10000000      -1.81881900       0.19190500       0.22880500
C        4.29648000       3.75296000       3.22097000  F       0.32878590       0.25468570       0.10303800       3.28785900      -2.54685700       1.03038000
C        3.58628000       6.14174000       4.24734000  F       0.21328950       0.40365690       0.19640290      -2.13289500       4.03656900       1.96402900
C        4.27001000       8.55069000       8.49276000  F       0.10000000       0.14268680       0.23111940      -0.25224700       1.42686800       2.31119400
C        3.75466000       7.05635000       7.59811000  F       0.21348260       0.50334010       0.13266930      -2.13482600      -5.03340100      -1.32669300
C        2.75567000       0.34833000       6.80258000  F       0.51720360       0.67423910       0.26278090      -5.17203600       6.74239100      -2.62780900
C        1.65246000       1.36016000       5.22290000  F       0.22038840       0.29260220       0.19919160       2.20388400       2.92602200      -1.99191600
C        0.82851000       1.51196000       2.81802000  F       0.10000000       0.69513510       0.12345920       0.02220800       6.95135100       1.23459200
C        4.01637000       2.03371000       4.06881000  F       0.29477470       0.10000000       0.10000000       2.94774700       0.62715800      -0.45419400
C        2.90194000       4.46935000       6.75869000  F       0.14877430       0.34187240       0.27663330       1.48774300       3.41872400      -2.76633300
C        6.46987000       0.04551000       6.24907000  F       0.18445160       0.14979520       0.28103750      -1.84451600       1.49795200      -2.81037500
C        6.17255000       3.86026000       0.38050000  F       0.20391330       0.12185940       0.10000000      -2.03913300       1.21859400       0.60440700
C        5.52032000       3.73105000       2.37812000  F       0.10000000       0.14934160       0.10000000      -0.71355500      -1.49341600      -0.84316000
C        1.11411000       6.62858000       3.48255000  F       0.10000000       0.19453200       0.10000000      -0.18248500      -1.94532000       0.12212500
C        2.95987000       7.77664000       6.40409000  F       0.10000000       0.21405630       0.36815010      -0.27321000      -2.14056300       3.68150100
C        3.89538000       7.24079000       0.46965000  F       0.10000000       0.27247560       0.34923540       0.72172600       2.72475600      -3.49235400
C        5.82944000       7.05119000       0.58195000  F       0.56709790       0.47322690       0.10000000      -5.67097900      -4.73226900       0.82078600
C        7.41429000       5.17387000       6.05725000  F       0.10000000       0.26584680       0.16031740      -0.36984800      -2.65846800       1.60317400
C        3.57719000       5.89859000       6.63976000  F       0.13255190       0.18508150       0.18255640      -1.32551900      -1.85081500       1.82556400
C        5.73505000       1.91612000       8.04020000  F       0.14387740       0.25292030       0.10000000      -1.43877400       2.52920300       0.01367400
C        7.02808000       1.41619000       8.44749000  F       0.46509360       0.21146120       0.52597690      -4.65093600       2.11461200       5.25976900
C        5.40788000       1.08842000       3.94106000  F       0.40496000       0.10000000       0.10000000      -4.04960000      -0.11288300       0.72917400
C        0.33527000       0.86863000       7.26764000  F       0.10000000       0.39390010       0.18021220      -0.23739500      -3.93900100      -1.80212200
C        5.62861000       3.36437000       7.74008000  F       0.29127620       0.32838460       0.10000000       2.91276200       3.28384600       0.96143400
C        6.83729000       3.83118000       2.76608000  F       0.10000000       0.40253400       0.10000000      -0.03702500       4.02534000      -0.23030400
C        3.03356000       2.20805000       5.25095000  F       0.10000000       0.10139550       0.33929400       0.22818200       1.01395500      -3.39294000
C        4.48603000       1.46268000       8.47486000  F       0.30059090       0.36450300       0.10000000       3.00590900      -3.64503000      -0.24666200
C        4.93628000       6.08660000       4.05360000  F       0.30744200       0.10000000       0.10000000       3.07442000      -0.95468100      -0.09401300
C        0.22467000       6.53074000       2.25981000  F       0.36010720       0.10000000       0.12151220       3.60107200      -0.42194500       1.21512200
C        5.64067000       4.35281000       5.48765000  F       0.11209870       0.12793710       0.50986520       1.12098700      -1.27937100       5.09865200
C        6.17158000       4.47780000       6.63901000  F       0.10000000       0.29370550       0.26733410      -0.04618500      -2.93705500       2.67334100
C        6.02588000       5.88053000       0.04331000  F       0.48699030       0.52860560       0.24023780       4.86990300      -5.28605600      -2.40237800
C        6.41905000       0.33678000       2.81246000  F       0.12020040       0.22829720       0.31560260      -1.20200400       2.28297200       3.15602600
C        6.70982000       0.56431000       1.13224000  F       0.57863800       1.00439760       0.37379170       5.78638000      10.04397600       3.73791700
C        7.51021000       2.24661000       5.80241000  F       0.10000000       0.14638410       0.35828010      -0.88919900      -1.46384100       3.58280100
36
Lattice="6.356098 0.0 0.0 0.0 6.356098 0.0 0.0 0.0 8.474797" Properties=species:S:1:pos:R:3:force_mask:L:1:force_component_sigma:R:3:forces:R:3 virial="-23.046285824582373 -9.41698104753623 -6.17257806806246 -9.41698104753623 -9.142313107873505 -7.2546455064234765 -6.17257806806246 -7.2546455064234765 -18.424715818913484" config_type=bulk_amo energy_sigma=0.006 virial_sigma=0.6000000000000001 energy=-293.61036704 free_energy=-293.63493795 pbc="T T T"
C        1.10208000       1.39461000       6.07290000  F       0.10000000       0.14774760       0.22762090       0.88391800      -1.47747600      -2.27620900
C        1.37405000       6.21374000       1.66879000  F       0.11332660       0.10000000       0.10000000      -1.13326600      -0.32991300       0.49467900
C        6.31694000       2.44428000       2.17779000  F       0.10000000       0.10000000       0.22203410      -0.52919700       0.24141600      -2.22034100
C        1.75783000       0.88969000       4.84573000  F       0.15483240       0.24265130       0.31349630      -1.54832400       2.42651300       3.13496300
C        3.94407000       4.20455000       4.60730000  F       0.11031110       0.10000000       0.12649980      -1.10311100       0.04219200       1.26499800
C        6.23707000       3.85910000       7.07440000  F       0.19778650       0.10000000       0.10000000       1.97786500       0.56942800       0.68712600
C        0.00794000       2.10856000       5.28960000  F       0.10000000       0.10000000       0.10000000       0.94577900       0.93910100       0.53000400
C        6.02046000       1.98687000       0.78915000  F       0.10000000       0.10838830       0.18388690       0.00815800       1.08388300       1.83886900
C        4.87427000       1.09602000       7.05985000  F       0.10000000       0.10000000       0.16747230      -0.35444300      -0.01036700      -1.67472300
C        0.82722000       1.75302000       4.00610000  F       0.10000000       0.23924990       0.10000000       0.78419800      -2.39249900      -0.76098800
C        3.74716000       0.26811000       7.59926000  F       0.13765440       0.10000000       0.17509330      -1.37654400       0.58429100      -1.75093300
C        2.32270000       0.44681000       8.01729000  F       0.10000000       0.13997020       0.10464500      -0.96542700       1.39970200      -1.04645000
C        1.92640000       3.48178000       0.26451000  F       0.17764210       0.13201200       0.17554000      -1.77642100       1.32012000      -1.75540000
C        4.86134000       4.29255000       5.66490000  F       0.19402270       0.23505510       0.11262310       1.94022700      -2.35055100      -1.12623100
C        6.04051000       1.29584000       8.15644000  F       0.10000000       0.10000000       0.36256280       0.79466500      -0.11551500      -3.62562800
C        4.66635000       0.66367000       3.19578000  F       0.10000000       0.10000000       0.17874590       0.52515000       0.05018300       1.78745900
C        5.05190000       1.40700000       5.60020000  F       0.10000000       0.14184610       0.36020550       0.79746000      -1.41846100       3.60205500
C        1.41356000       2.54822000       2.86262000  F       0.10000000       0.10000000       0.10000000       0.20883800       0.61852600       0.31496900
C        5.57485000       5.10786000       2.50121000  F       0.10000000       0.10000000       0.15820780      -0.55617500      -0.66030200      -1.58207800
C        6.13319000       3.51145000       5.68307000  F       0.12601660       0.10000000       0.12176140      -1.26016600       0.69617400       1.21761400
C        2.99105000       0.14166000       4.71789000  F       0.10000000       0.30730030       0.18574270      -0.89091900      -3.07300300       1.85742700
C        4.97475000       4.59722000       7.09392000  F       0.10000000       0.10000000       0.10000000      -0.35053600       0.34196500       0.40192500
C        1.10595000       1.11220000       7.44319000  F       0.16286660       0.13352600       0.10525460       1.62866600      -1.33526000       1.05254600
C        2.82644000       3.78887000       1.29169000  F       0.10000000       0.10000000       0.16822450      -0.19971100      -0.37510400      -1.68224500
C        4.37917000       0.68325000       4.59784000  F       0.30740660       0.10000000       0.32161690      -3.07406600       0.77114700      -3.21616900
C        5.35972000       3.67995000       2.66584000  F       0.10000000       0.10000000       0.10000000      -0.07508800      -0.18316800       0.11512800
C        4.03503000       3.40928000       3.39794000  F       0.10000000       0.10286020       0.22888060      -0.24579000       1.02860200      -2.28880600
C        2.30682000       6.05623000       0.75929000  F       0.14507100       0.10000000       0.10000000      -1.45071000       0.94403500       0.17843800
C        6.06652000       1.09263000       2.95892000  F       0.11247310       0.10000000       0.10000000       1.12473100       0.85051500      -0.00600400
C        4.36782000       5.88361000       2.18012000  F       0.10000000       0.19516910       0.10000000       0.87342300      -1.95169100       0.96698500
C        0.24407000       6.20819000       2.33912000  F       0.13200150       0.12453940       0.10000000       1.32001500      -1.24539400       0.05634900
C        4.04939000       5.29002000       7.92101000  F       0.18906750       0.10000000       0.20402970       1.89067500       0.53954600       2.04029700
C        1.04776000       3.75477000       7.83559000  F       0.10000000       0.10000000       0.21906680       0.88943100      -0.64200900       2.19066800
C        3.44463000       5.17166000       0.97420000  F       0.20368600       0.10000000       0.12090730       2.03686000      -0.03346800       1.20907300
C        2.74498000       3.08117000       2.51527000  F       0.10000000       0.10000000       0.21586480      -0.55354500       0.63840700       2.15864800
C        2.97794000       5.12921000       4.95500000  F       0.11866200       0.25084360       0.20880150      -1.18662000       2.50843600      -2.08801500
36
Lattice="5.749789 0.0 0.0 0.0 5.749789 0.0 0.0 0.0 7.666385" Properties=species:S:1:pos:R:3:force_mask:L:1:force_component_sigma:R:3:forces:R:3 virial="69.65666711541529 11.819267789913033 -7.011954115628536 11.819267789913033 4.4726920778169 -1.1826832523232378 -7.011954115628536 -1.1826832523232378 33.103415378107314" config_type=bulk_amo energy_sigma=0.006 virial_sigma=0.6000000000000001 energy=-264.42007371 free_energy=-264.44237718 pbc="T T T"
C        5.05999000       0.66280000       4.90097000  F       0.10000000       0.59211580       0.39174730       0.15787200       5.92115800       3.91747300
C        1.26675000       2.80179000       2.33990000  F       0.25339900       0.20746640       0.26188380       2.53399000       2.07466400      -2.61883800
C        2.79873000       1.24685000       1.99535000  F       0.25239730       0.14467280       0.10000000       2.52397300      -1.44672800      -0.77241700
C        3.31896000       5.70554000       0.00773000  F       0.38028680       0.10000000       0.10000000       3.80286800       0.07295100       0.03652000
C        3.34116000       1.99353000       3.32608000  F       0.18621880       0.12155130       0.10000000       1.86218800       1.21551300       0.49122900
C        0.30671000       0.39849000       2.83189000  F       0.64334940       0.10000000       0.29363020       6.43349400      -0.37436000       2.93630200
C        0.81460000       0.68035000       6.59566000  F       0.13901630       0.33021010       0.38671300      -1.39016300      -3.30210100       3.86713000
C        5.02401000       0.14675000       0.40661000  F       0.61040820       0.18575980       0.44510480      -6.10408200       1.85759800       4.45104800
C        0.41733000       3.96751000       1.72531000  F       0.85447420       0.20235130       0.14751850       8.54474200      -2.02351300       1.47518500
C        4.17424000       3.31921000       7.59155000  F       0.10000000       0.10000000       0.31627000       0.79744700      -0.32670800      -3.16270000
C        0.03488000       1.46463000       4.01659000  F       0.60716830       0.46117070       1.15511290      -6.07168300      -4.61170700     -11.55112900
C        2.57190000       3.13024000       6.40517000  F       0.21169650       0.10000000       0.27445290      -2.11696500      -0.90548500       2.74452900
C        2.91902000       5.45726000       1.39015000  F       0.10000000       0.27656890       0.19125290      -0.68667900       2.76568900       1.91252900
C        1.07169000       4.23732000       0.38974000  F       0.53080650       0.11200330       0.10000000      -5.30806500       1.12003300      -0.06193500
C        3.75370000       1.05541000       4.54728000  F       0.58732040       0.12144060       0.22974960      -5.87320400       1.21440600      -2.29749600
C        0.90730000       2.22653000       4.41393000  F       1.02134790       1.26125820       0.53530310      10.21347900      12.61258200       5.35303100
C        2.11465000       4.83494000       3.42366000  F       0.60520090       0.41304660       0.55440540       6.05200900      -4.13046600       5.54405400
C        4.76593000       2.54035000       6.42940000  F       0.44665010       0.10000000       0.33948750      -4.46650100      -0.92409700       3.39487500
C        5.17992000       0.31668000       1.92455000  F       0.81898640       0.10531710       0.83125370      -8.18986400      -1.05317100      -8.31253700
C        2.05592000       3.36724000       0.22238000  F       0.10000000       0.66707900       0.38220840       0.92527600      -6.67079000      -3.82208400
C        2.86333000       0.45062000       6.38473000  F       1.19839390       0.19181410       1.04617300      11.98393900       1.91814100      10.46173000
C        0.31364000       5.36172000       7.46724000  F       0.63762040       0.10000000       0.30528310       6.37620400      -0.61582800      -3.05283100
C        3.61575000       5.27731000       3.61088000  F       0.17456130       0.10000000       0.22480890       1.74561300      -0.33392200       2.24808900
C        4.96332000       3.52381000       2.20173000  F       0.41123280       0.27534630       0.10077290      -4.11232800       2.75346300       1.00772900
C        1.63673000       5.01886000       4.76780000  F       0.10000000       0.35745890       0.10000000      -0.27724000      -3.57458900       0.49266900
C        0.38793000       3.82535000       4.49562000  F       0.34661780       0.37533680       0.34368980      -3.46617800       3.75336800       3.43689800
C        1.38159000       5.11080000       2.31716000  F       0.17176890       0.37240720       0.12897890      -1.71768900       3.72407200      -1.28978900
C        4.82303000       2.56783000       3.22463000  F       0.34401020       0.14669960       0.21228620      -3.44010200      -1.46699600      -2.12286200
C        4.16589000       5.00289000       2.25770000  F       0.35231350       0.10000000       0.10000000      -3.52313500       0.55872600      -0.26631200
C        5.05927000       5.16195000       4.46731000  F       0.10000000       1.12200910       0.25573580      -0.39158200     -11.22009100      -2.55735800
C        1.94515000       2.08371000       1.32321000  F       0.10000000       0.36257520       0.15478700      -0.66634200       3.62575200      -1.54787000
C        2.25042000       3.18460000       3.34842000  F       0.10000000       0.28421780       0.10000000      -0.36948900      -2.84217800       0.60645200
C        5.55430000       1.47830000       6.18085000  F       0.10000000       0.10000000       0.10000000      -0.56340900       0.30572900      -0.22097500
C        1.77000000       3.69653000       5.37092000  F       0.17530720       0.10000000       0.10000000       1.75307200       0.58505700       0.63601700
C        3.29449000       1.82329000       6.12530000  F       0.28760560       0.26218920       0.24348850       2.87605600       2.62189200      -2.43488500
C        1.82420000       0.37518000       5.73433000  F       0.98475220       0.28780640       0.89214720      -9.84752200      -2.87806400      -8.92147200
64
Lattice="7.527393 0.0 0.0 0.0 7.527393 0.0 0.0 0.0 22.527393" Properties=species:S:1:pos:R:3:force_mask:L:1:force_component_sigma:R:3:forces:R:3 virial="15.939206845219893 -1.6475323892717009 -18.66069418131676 -1.6475323892717009 25.864753562904294 5.474141210909629 -18.66069418131676 5.474141210909629 10.068265882959587" config_type=surf_amo energy_sigma=0.008 virial_sigma=0.8 energy=-507.52910192 free_energy=-507.55794102 pbc="T T T"
C        4.81940000       0.85766000       2.86979000  F       0.10000000       0.21720540       0.16290720      -0.47867400       2.17205400      -1.62907200
C        0.12989000       6.75233000      19.67117000  F       0.10000000       0.35819920       0.10000000       0.24788400      -3.58199200       0.59878300
C        1.18379000       6.15559000      20.67686000  F       0.10000000       0.25821120       0.12462620       0.04204800       2.58211200      -1.24626200
C        4.90976000       7.02689000       2.88889000  F       0.10000000       0.27767190       0.19769130       0.30486100      -2.77671900      -1.97691300
C        6.27009000       6.73664000       3.15476000  F       0.10000000       0.15124810       0.27035610       0.76638600      -1.51248100      -2.70356100
C        7.08508000       1.65950000      22.51681000  F       0.10000000       0.32938260       0.15070700       0.76198400       3.29382600      -1.50707000
C        1.30454000       0.05239000      21.69142000  F       0.27633730       0.15418060       0.10333420       2.76337300      -1.54180600      -1.03334200
C        7.35286000       3.27092000       0.23969000  F       0.10000000       0.14604390       0.10000000       0.66235100      -1.46043900       0.45743000
C        5.57977000       6.51561000      21.61370000  F       0.10741140       0.10000000       0.12598020       1.07411400      -0.21294200      -1.25980200
C        4.40964000       5.01650000      18.69021000  F       0.26300370       0.34683130       0.10000000      -2.63003700      -3.46831300      -0.19143300
C        5.95161000       1.38147000       3.62042000  F       0.10000000       0.10000000       0.10000000       0.95936800      -0.36650100      -0.41361200
C        0.95852000       3.94995000      21.85617000  F       0.10000000       0.10680240       0.10000000      -0.35432900      -1.06802400       0.68534600
C        3.96455000       1.69290000      19.08620000  F       0.21563930       0.10000000       0.24206270      -2.15639300      -0.99642300      -2.42062700
C        3.24989000       7.08380000       0.76442000  F       0.11680740       0.10000000       0.35356020       1.16807400       0.75305100       3.53560200
C        3.40395000       4.02371000      21.44835000  F       0.10000000       0.39824780       0.10000000      -0.32682900      -3.98247800      -0.14851900
C        0.03171000       6.22711000       0.80765000  F       0.10000000       0.10000000       0.10000000      -0.02340800       0.82124800      -0.24413800
C        2.77290000       1.65481000      18.67708000  F       0.12523280       0.10000000       0.10743550      -1.25232800      -0.25031400       1.07435500
C        6.77579000       5.55937000       2.03148000  F       0.10000000       0.44909230       0.12484020       0.85997500       4.49092300       1.24840200
C        0.34283000       1.20566000      21.36734000  F       0.10419130       0.31565670       0.10000000      -1.04191300      -3.15656700      -0.08576700
C        0.54650000       5.36252000      21.69633000  F       0.12584110       0.10000000       0.10000000       1.25841100      -0.40641200      -0.40589700
C        0.81178000       0.74108000       3.30957000  F       0.10000000       0.10000000       0.10000000      -0.65945400      -0.76647700       0.29354400
C        0.18364000       4.92501000       2.92457000  F       0.10000000       0.27114740       0.10000000       0.46213500      -2.71147400       0.99556400
C        2.31552000       3.50644000      22.30331000  F       0.30411220       0.10000000       0.10000000       3.04112200       0.35048400       0.41181000
C        2.58255000       3.94377000      20.04474000  F       0.13283630       0.10000000       0.66703250      -1.32836300       0.28105100       6.67032500
C        1.03729000       2.05958000      20.48634000  F       0.10000000       0.39559690       0.15849070       0.38780500       3.95596900      -1.58490700
C        6.18437000       4.21904000      22.41730000  F       0.41624720       0.27810890       0.23960860      -4.16247200       2.78108900       2.39608600
C        5.51277000       4.96469000       1.40814000  F       0.22503690       0.22070610       0.28172460       2.25036900       2.20706100      -2.81724600
C        2.28147000       4.41967000       2.62016000  F       0.18223390       0.25854820       0.32306080       1.82233900       2.58548200       3.23060800
C        2.10821000       1.43415000      20.00367000  F       0.24219150       0.10000000       0.22608760       2.42191500       0.46656600      -2.26087600
C        6.24381000       2.72575000       3.80033000  F       0.10000000       0.10000000       0.18593480      -0.52375900       0.33193700      -1.85934800
C        5.32757000       3.59244000       3.28312000  F       0.12933670       0.12517370       0.11468240       1.29336700       1.25173700      -1.14682400
C        3.43713000       6.79781000      20.47742000  F       0.14941190       0.10000000       0.17221450      -1.49411900      -0.46211900      -1.72214500
C        3.63558000       0.20822000      22.10895000  F       0.11364500       0.10000000       0.10000000       1.13645000      -0.83507900      -0.08951200
C        5.86223000       1.12574000       0.25388000  F       0.10049720       0.18693320       0.27403970       1.00497200       1.86933200       2.74039700
C        5.06454000       1.59770000       1.30877000  F       0.42645740       0.19178600       0.43679330      -4.26457400       1.91786000       4.36793300
C        3.17881000       4.52852000      19.05615000  F       0.24879770       0.61191560       0.51177950       2.48797700       6.11915600      -5.11779500
C        4.63882000       3.98254000       1.87453000  F       0.28969120       0.27396500       0.43017510      -2.89691200      -2.73965000       4.30175100
C        1.80618000       3.28921000       1.86558000  F       0.11225270       0.20432130       0.48082040      -1.12252700       2.04321300       4.80820400
C        4.30114000       6.07638000       1.86648000  F       0.12340450       0.17077880       0.16030110      -1.23404500       1.70778800      -1.60301100
C        2.53649000       5.76442000      19.96770000  F       0.10000000       0.10000000       0.20368970      -0.07670900       0.80600800       2.03689700
C        6.45150000       3.32626000      19.77482000  F       0.38431370       0.47182040       0.21609530       3.84313700       4.71820400      -2.16095300