64
Lattice="7.150378 0.0 0.0 0.0 7.150378 0.0 0.0 0.0 7.150378" Properties=species:S:1:pos:R:3:force_mask:L:1:force_component_sigma:R:3:forces:R:3 virial="240.09366973667272 30.74440990125151 12.072009557948473 30.74440990125151 207.9614858423651 -8.755870123112794 12.072009557948473 -8.755870123112794 232.6145437465252" config_type=bulk_amo energy_sigma=0.008 virial_sigma=0.8 energy=-428.29023602 free_energy=-428.32064626 pbc="T T T"
C        6.39172000       0.13073000       6.34620000  F       0.10000000       0.23730660       0.10000000      -0.12194100      -2.37306600      -0.58121700
C        2.26545000       5.63310000       0.53584000  F       0.10000000       0.14689450       0.14522470      -0.09126100       1.46894500      -1.45224700
C        0.25766000       4.67643000       1.54273000  F       0.38819880       0.41867130       0.39031900       3.88198800       4.18671300       3.90319000
C        1.42422000       5.25172000       6.36407000  F       1.27142430       0.15633040       0.40313760      12.71424300       1.56330400       4.03137600
C        5.36845000       3.62434000       5.28719000  F       0.17568220       0.56723940       0.56780330       1.75682200      -5.67239400       5.67803300
C        5.57297000       2.25434000       2.24909000  F       0.18855570       0.15358700       0.69094530       1.88555700       1.53587000      -6.90945300
C        6.34289000       0.06277000       1.44731000  F       0.15683870       0.40189260       0.63558640       1.56838700       4.01892600      -6.35586400
C        5.48505000       1.45381000       0.79749000  F       0.32135700       0.10000000       0.65740780       3.21357000       0.82592700       6.57407800
C        6.84742000       2.40394000       6.98062000  F       0.29052140       0.35084250       0.40810670      -2.90521400       3.50842500       4.08106700
C        5.60998000       4.61535000       0.59495000  F       0.18870530       0.10000000       0.67274760      -1.88705300      -0.29300100      -6.72747600
C        6.22276000       6.26363000       3.60978000  F       0.58475500       0.56181860       0.26157630      -5.84755000       5.61818600      -2.61576300
C        6.56081000       1.51572000       2.94854000  F       0.10000000       0.40449170       0.82241970       0.35784000       4.04491700      -8.22419700
C        0.48809000       1.74567000       5.17654000  F       0.10000000       0.22128870       0.79265050       0.27559300       2.21288700      -7.92650500
C        4.12161000       5.92680000       3.08328000  F       0.92239570       0.10000000       0.42396190      -9.22395700       0.44794900       4.23961900
C        5.00327000       6.74649000       6.56670000  F       0.11051610       1.20499470       0.18171600      -1.10516100      12.04994700       1.81716000
C        6.85638000       4.20323000       2.74501000  F       0.13253470       0.21614610       0.56988090       1.32534700      -2.16146100      -5.69880900
C        0.26515000       5.55440000       6.76665000  F       0.33118660       0.10000000       0.10000000      -3.31186600       0.43439800      -0.94819700
C        2.96335000       2.47961000       0.14841000  F       0.52121230       0.18482400       0.75397610       5.21212300       1.84824000       7.53976100
C        1.44104000       1.39291000       4.10591000  F       0.33738660       1.03488840       0.87116340      -3.37386600     -10.34888400       8.71163400
C        2.04380000       7.07155000       5.03804000  F       0.15980520       0.10000000       0.19460490       1.59805200      -0.76484300      -1.94604900
C        0.59878000       1.95631000       1.06165000  F       0.19630300       0.60896030       0.12364220      -1.96303000       6.08960300       1.23642200
C        0.46524000       3.15811000       5.93501000  F       0.19637630       0.19356940       0.10000000       1.96376300      -1.93569400      -0.48983800
C        1.74326000       3.05025000       2.47488000  F       0.10000000       0.10000000       0.36423070      -0.28335100       0.95725300      -3.64230700
C        1.55572000       0.93961000       6.55381000  F       0.38065480       0.13813890       0.10000000       3.80654800      -1.38138900       0.67588200
C        7.05857000       2.84416000       2.09169000  F       0.10000000       0.15890490       0.32496790       0.60891800      -1.58904900       3.24967900
C        0.19585000       4.63600000       3.91861000  F       0.10000000       0.10000000       0.29982730      -0.59542900      -0.70386700      -2.99827300
C        4.27003000       3.52551000       1.96226000  F       0.23489760       1.02053460       0.83376920       2.34897600     -10.20534600       8.33769200
C        0.22772000       1.30218000       6.43093000  F       0.47988140       1.25900830       0.29815280      -4.79881400     -12.59008300      -2.98152800
C        1.31839000       0.09194000       2.59480000  F       0.33096020       0.40756530       0.50531900      -3.30960200      -4.07565300      -5.05319000
C        3.52401000       3.59500000       6.82516000  F       0.10000000       0.38460180       0.43841090       0.41418600       3.84601800      -4.38410900
C        0.42713000       0.58431000       1.50233000  F       0.41429030       0.21342190       0.32867600       4.14290300       2.13421900       3.28676000
C        2.19050000       4.23100000       5.98842000  F       0.26586640       0.30404380       0.47975700       2.65866400      -3.04043800      -4.79757000
C        2.63672000       0.33757000       0.06751000  F       0.21959680       0.72801490       0.10000000       2.19596800      -7.28014900      -0.85943400
C        3.00362000       2.48943000       4.49892000  F       1.05345800       0.48420140       0.10000000     -10.53458000       4.84201400       0.88559400
C        5.25597000       2.43683000       4.69683000  F       0.42331010       0.10000000       0.10000000       4.23310100       0.95918900       0.13616900
C        3.57059000       1.08438000       2.57521000  F       0.36765210       0.25073800       0.63075000      -3.67652100       2.50738000      -6.30750000
C        3.62119000       2.35949000       1.58966000  F       0.69655160       0.36044060       0.14355330      -6.96551600      -3.60440600      -1.43553300
C        4.17237000       4.16893000       3.22077000  F       0.10000000       0.25801870       0.20351790      -0.94865400       2.58018700       2.03517900
C        4.04131000       7.04361000       0.88682000  F       0.28910460       0.34003860       0.36023630      -2.89104600       3.40038600      -3.60236300
C        4.12376000       1.30665000       0.54559000  F       0.35252480       0.13870540       0.29507200       3.52524800       1.38705400      -2.95072000
C        2.01240000       3.56095000       4.60012000  F       0.66947210       0.42098530       0.31135490       6.69472100       4.20985300       3.11354900
C        2.58429000       5.93357000       3.86956000  F       0.14193570       0.40098820       0.10000000       1.41935700       4.00988200       0.90175300
C        2.84474000       4.70706000       3.30016000  F       0.48014760       0.19325950       0.22773660      -4.80147600      -1.93259500       2.27736600
C        0.63297000       3.61492000       4.49880000  F       0.33485700       0.53429050       0.73245560       3.34857000      -5.34290500       7.32455600
C        4.57325000       6.62529000       2.03879000  F       0.55687950       0.33499420       0.10000000      -5.56879500      -3.34994200       0.72106200
C        1.25906000       5.82957000       1.85144000  F       0.26661540       0.15853880       0.31634040       2.66615400      -1.58538800      -3.16340400
C        2.53096000       0.47653000       3.14977000  F       0.31264380       0.28697370       0.27244220      -3.12643800      -2.86973700      -2.72442200
C        5.05903000       5.49935000       6.50546000  F       0.62084930       0.77060000       0.76901190      -6.20849300      -7.70600000       7.69011900
C        5.79928000       6.37644000       2.28661000  F       0.76385300       0.18733760       0.31466710       7.63853000      -1.87337600      -3.14667100
C        6.90534000       4.53378000       0.26370000  F       0.23297160       0.10657250       0.63248450       2.32971600       1.06572500       6.32484500
C        6.65246000       1.61945000       4.18816000  F       0.38517430       0.64167190       1.43890550      -3.85174300       6.41671900      14.38905500
C        6.00386000       0.55120000       3.80558000  F       0.67720380       0.72291340       0.10000000      -6.77203800      -7.22913400      -0.79689700
C        3.95661000       0.52791000       6.16823000  F       0.38994540       0.10000000       0.10000000      -3.89945400      -0.70226500      -0.07971600
C        5.49298000       3.31888000       6.78031000  F       0.10000000       0.23284400       0.10000000       0.72499200      -2.32844000      -0.09280700
C        4.51423000       0.84676000       3.40253000  F       0.46549560       0.20964280       0.81684300       4.65495600       2.09642800       8.16843000
C        2.14363000       2.17003000       3.41629000  F       0.14544600       0.20212890       0.58781140       1.45446000       2.02128900      -5.87811400
C        5.31692000       4.85874000       5.44208000  F       0.35990780       0.41473100       1.05852380      -3.59907800       4.14731000     -10.58523800
C        4.42119000       4.53076000       1.25160000  F       0.48667740       0.58089590       0.14504060       4.86677400       5.80895900      -1.45040600
C        4.10189000       2.05465000       4.20143000  F       1.01457750       0.44854500       0.14019530      10.14577500      -4.48545000       1.40195300
C        7.01978000       5.74717000       4.46058000  F       0.52650780       0.10000000       0.13888200       5.26507800       0.74851100      -1.38882000
C        4.82592000       5.36180000       4.07081000  F       0.46189390       0.18647030       0.10636970       4.61893900      -1.86470300       1.06369700
C        3.70143000       4.86752000       0.17792000  F       0.47777670       0.40292720       0.10000000      -4.77776700       4.02927200       0.22396000
C        1.95679000       2.64793000       6.54182000  F       0.72058020       0.31700200       0.25783180      -7.20580200      -3.17002000      -2.57831800
C        6.83764000       6.02061000       5.68627000  F       0.18703240       0.54377940       0.10000000      -1.87032400       5.43779400       0.75331400
64
Lattice="9.483921 0.0 0.0 0.0 9.483921 0.0 0.0 0.0 9.483921" Properties=species:S:1:pos:R:3:force_mask:L:1:force_component_sigma:R:3:forces:R:3 virial="-28.743577330555745 -10.946472231215116 4.249538026054597 -10.946472231215116 -26.312813915170985 5.978429692697317 4.249538026054597 5.978429692697317 -23.518451043945685" config_type=bulk_amo energy_sigma=0.008 virial_sigma=0.8 energy=-419.15342847 free_energy=-419.20587977 pbc="T T T"
C        1.02997000       0.38243000       8.73790000  F       0.17086330       0.10283040       0.10000000       1.70863300      -1.02830400      -0.36098900
C        8.08657000       0.38821000       8.37370000  F       0.10000000       0.21253380       0.22771790       0.48022900       2.12533800       2.27717900
C        2.52710000       9.21027000       4.84729000  F       0.10000000       0.10000000       0.11715800      -0.50214400       0.69064900       1.17158000
C        0.12619000       3.39875000       8.74250000  F       0.56480210       0.14430360       0.28903460      -5.64802100       1.44303600      -2.89034600
C        1.27349000       0.11137000       3.90153000  F       0.11994670       0.10000000       0.10000000       1.19946700       0.49713300       0.84863800
C        8.21064000       7.47073000       8.74199000  F       0.10000000       0.69289510       0.16974190       0.66043700      -6.92895100      -1.69741900
C        9.34490000       7.45391000       0.64921000  F       0.10000000       0.21937670       0.10000000       0.84973800       2.19376700       0.23149800
C        8.66968000       2.37732000       7.17670000  F       0.10000000       0.48112910       0.11893290       0.16274800       4.81129100       1.18932900
C        5.37522000       5.01243000       9.34468000  F       0.36040540       0.22101370       0.17884340       3.60405400       2.21013700      -1.78843400
C        0.28161000       8.82257000       1.25695000  F       0.17178780       0.10000000       0.10000000      -1.71787800      -0.25017200       0.73478300
C        2.95769000       7.45575000       4.83772000  F       0.41503750       0.44219710       0.47165760      -4.15037500       4.42197100      -4.71657600
C        6.40978000       3.34011000       9.24612000  F       0.10000000       0.35053280       0.34917160      -0.19321600       3.50532800      -3.49171600
C        6.84782000       4.87970000       8.83032000  F       0.28895710       0.41734930       0.10000000      -2.88957100      -4.17349300       0.63098600
C        0.32750000       6.58174000       2.69601000  F       0.36438300       0.14940270       0.18176780       3.64383000      -1.49402700       1.81767800
C        6.74238000       9.44471000       8.03072000  F       0.10000000       0.20051280       0.15456150       0.12768000       2.00512800      -1.54561500
C        7.13082000       4.86886000       5.79556000  F       0.10000000       0.10000000       0.20752910      -0.79795300      -0.44142300       2.07529100
C        3.42387000       7.98017000       0.82333000  F       0.10000000       0.10000000       0.33782250      -0.72869900      -0.04849900      -3.37822500
C        7.80764000       8.54603000       8.16458000  F       0.39969660       0.22256980       0.10736970      -3.99696600       2.22569800      -1.07369700
C        4.65816000       2.43481000       7.17266000  F       0.44128660       0.10000000       0.20413310       4.41286600      -0.05318300      -2.04133100
C        4.57621000       8.96841000       0.09280000  F       0.10000000       0.47445320       0.50604690      -0.26462900      -4.74453200       5.06046900
C        3.85719000       6.09613000       3.16816000  F       0.48282720       0.24352650       0.10000000       4.82827200       2.43526500       0.71125300
C        3.26364000       5.49850000       6.27447000  F       1.01918540       0.52063800       0.23920100     -10.19185400       5.20638000       2.39201000
C        6.52379000       8.58914000       5.06357000  F       0.10000000       0.28874220       0.45134670      -0.98272700      -2.88742200      -4.51346700
C        2.04386000       1.05697000       8.22816000  F       0.15269230       0.30748510       0.10000000       1.52692300       3.07485100       0.73968200
C        6.16937000       6.04096000       4.32642000  F       0.14822040       0.24861330       0.13867880      -1.48220400      -2.48613300      -1.38678800
C        0.23859000       6.34610000       1.39575000  F       0.32827250       0.10000000       0.10000000      -3.28272500      -0.14689500      -0.72944700
C        7.19981000       6.94478000       4.71791000  F       0.10000000       0.10000000       0.23741740      -0.99042200       0.70940500      -2.37417400
C        4.30086000       4.71766000       6.36869000  F       1.10564550       0.41613930       0.33536790      11.05645500      -4.16139300      -3.35367900
C        1.38859000       7.59298000       4.79290000  F       0.27802990       0.10000000       0.14174110       2.78029900       0.51455000      -1.41741100
C        1.74615000       6.53326000       2.72777000  F       0.10000000       0.27737990       0.10000000      -0.30350100       2.77379900      -0.21401000
C        1.06501000       8.79215000       2.91253000  F       0.25300000       0.31051440       0.57361030      -2.53000000      -3.10514400      -5.73610300
C        2.36182000       7.31640000       8.91203000  F       0.21394940       0.10000000       0.16465670       2.13949400       0.65849800       1.64656700
C        3.85912000       1.34246000       4.81829000  F       0.10000000       0.40768450       0.11140400      -0.69025800      -4.07684500      -1.11404000
C        5.73239000       8.08659000       1.07495000  F       0.10000000       0.10000000       0.33735580       0.03797200       0.26829000       3.37355800
C        3.34118000       2.48974000       4.83337000  F       0.14665220       0.51460310       0.29479340       1.46652200       5.14603100       2.94793400
C        1.12267000       2.72963000       8.92014000  F       0.59533510       0.40677930       0.10000000       5.95335100      -4.06779300      -0.11903900
C        7.61707000       8.97705000       5.85644000  F       0.45137370       0.16082700       0.10000000       4.51373700      -1.60827000      -0.71449100
C        3.33586000       6.93257000       5.98085000  F       0.19536150       0.45101170       0.10000000      -1.95361500      -4.51011700       0.87342500
C        3.32802000       4.61059000       5.18317000  F       0.13237380       0.10000000       0.30137720      -1.32373800      -0.64752200      -3.01377200
C        6.06913000       2.59349000       7.62239000  F       0.13164560       0.10000000       0.14307230      -1.31645600       0.32547200       1.43072300
C        0.12414000       6.67039000       8.91069000  F       0.11096270       0.10000000       0.29969740       1.10962700       0.08168900      -2.99697400
C        4.24048000       9.06167000       6.08946000  F       0.12119990       0.19641910       0.13668720       1.21199900      -1.96419100      -1.36687200
C        4.86963000       6.25567000       8.94571000  F       0.10000000       0.29144330       0.10000000       0.53615300      -2.91443300      -0.95072800
C        4.99893000       8.27068000       4.94593000  F       0.27083460       0.43432230       0.26418450       2.70834600       4.34322300       2.64184500
C        4.25664000       6.77059000       7.87167000  F       0.10000000       0.10050850       0.23833120      -0.87520500       1.00508500       2.38331200
C        6.66668000       9.11962000       2.22939000  F       0.10433660       0.42108070       0.23674790      -1.04336600      -4.21080700       2.36747900
C        5.69664000       5.42764000       5.72332000  F       0.13866720       0.20449220       0.15974710       1.38667200      -2.04492200      -1.59747100
C        7.75605000       5.20397000       7.33894000  F       0.13393470       0.10000000       0.25061780      -1.33934700      -0.84581900       2.50617800
C        8.37962000       6.53402000       7.56534000  F       0.16645000       0.17549710       0.27648420       1.66450000      -1.75497100       2.76484200
C        4.26513000       3.27740000       6.07811000  F       0.20313370       0.29785560       0.11046020      -2.03133700      -2.97855600       1.10460200
C        0.75067000       0.81705000       4.91022000  F       0.10000000       0.10000000       0.24171140       0.32989500       0.35850400       2.41711400
C        6.76351000       8.58606000       3.55967000  F       0.10000000       0.22098830       0.32251000       0.41079600       2.20988300      -3.22510000
C        3.04148000       7.07675000       2.55227000  F       0.27273120       0.25155470       0.46204880      -2.72731200      -2.51554700      -4.62048800
C        8.56270000       9.26371000       0.66534000  F       0.16107800       0.10000000       0.46522470       1.61078000       0.40475700       4.65224700
C        4.29468000       7.61727000       3.98619000  F       0.35106760       0.28298290       0.10000000      -3.51067600      -2.82982900       0.82909000
C        5.80027000       1.18922000       6.60294000  F       0.10000000       0.10964740       0.35121540      -0.62310100       1.09647400       3.51215400
C        9.38989000       0.87117000       8.35684000  F       0.39093510       0.10000000       0.16425190      -3.90935100       0.51031200      -1.64251900
C        5.55281000       5.84939000       2.63066000  F       0.23893740       0.43640050       0.81430960      -2.38937400      -4.36400500       8.14309600
C        7.66948000       5.56866000       4.43809000  F       0.10000000       0.10000000       0.26905700      -0.73183300       0.82652900       2.69057000
C        5.70564000       6.77838000       1.88303000  F       0.10000000       0.92631190       0.80017110       0.74472800       9.26311900      -8.00171100
C        7.60105000       3.83228000       6.81702000  F       0.19411440       0.10000000       0.10000000       1.94114400      -0.77440600      -0.52930200
C        2.87088000       5.32605000       7.75745000  F       0.14304840       0.13876500       0.10000000       1.43048400       1.38765000      -0.51502000
C        4.17612000       7.61085000       6.68595000  F       0.20073800       0.24129610       0.54675590       2.00738000       2.41296100       5.46755900
C        8.83918000       8.20084000       5.62919000  F       0.31273600       0.29154030       0.14842790      -3.12736000       2.91540300       1.48427900
125
Lattice="11.569791 0.0 0.0 0.0 11.569791 0.0 0.0 0.0 11.569791" Properties=species:S:1:pos:R:3:force_mask:L:1:force_component_sigma:R:3:forces:R:3 virial="-32.771327403208794 -11.313745401169843 13.97440151013947 -11.313745401169843 19.959391541568564 -62.75967001426881 13.97440151013947 -62.75967001426881 -56.89074481878852" config_type=bulk_amo energy_sigma=0.011180339887498949 virial_sigma=1.118033988749895 energy=-832.14783313 free_energy=-832.26494366 pbc="T T T"
C        7.26655000       0.61055000       2.20163000  F       0.20993650       0.10000000       0.18016460      -2.09936500       0.50972100      -1.80164600
C        1.46961000       5.13984000       0.05644000  F       0.12428360       0.10000000       0.41696850       1.24283600      -0.97458300       4.16968500
C        5.19140000      11.17049000       0.25622000  F       0.10000000       0.16381680       0.12783210       0.63676600       1.63816800      -1.27832100
C        5.20175000       2.29162000       3.55840000  F       0.13513820       0.10000000       0.10000000      -1.35138200       0.14851800       0.97796600
C        4.65173000       5.11214000       6.11215000  F       0.82945990       0.51054810       0.47253980      -8.29459900       5.10548100      -4.72539800
C        2.71315000       9.18056000       1.81070000  F       0.21144350       0.25428980       0.15043590      -2.11443500       2.54289800      -1.50435900
C        5.28619000       4.72486000       4.34687000  F       0.11937250       0.10000000       0.10000000       1.19372500       0.27608400       0.35587800
C        3.87676000      10.53043000      11.18824000  F       0.12441570       0.10000000       0.10000000       1.24415700       0.59276500       0.97469700
C       10.09895000       9.97678000       2.98197000  F       0.10000000       0.10000000       0.28405230       0.86234700      -0.06842600      -2.84052300
C        6.09551000       1.01332000       7.55687000  F       0.10000000       0.30040610       0.23522880       0.05714400       3.00406100       2.35228800
C        4.53326000       7.71669000       6.11593000  F       0.50431790       0.59078720       0.10000000      -5.04317900      -5.90787200      -0.12120900
C        5.33769000      10.60606000       9.92145000  F       0.10000000       0.10476140       0.22223540       0.78061900       1.04761400      -2.22235400
C        9.01691000       2.32297000       9.98195000  F       0.39533480       0.14217960       0.10000000      -3.95334800      -1.42179600       0.87683500
C        8.24652000       7.01741000       5.96948000  F       0.10000000       0.27006990       0.21165620       0.49121200       2.70069900      -2.11656200
C        6.43788000       0.75646000       9.39269000  F       0.20918810       0.14933230       0.10000000      -2.09188100      -1.49332300      -0.56163300
C       10.21694000       6.49285000       3.29306000  F       0.22202860       0.10000000       0.13023340       2.22028600       0.14150800      -1.30233400
C        2.53509000       6.53210000       3.84745000  F       0.10000000       0.12264390       0.10422300       0.95893600       1.22643900       1.04223000
C        9.82068000       2.45433000       1.48607000  F       0.12658010       0.10000000       0.44244610      -1.26580100       0.42403200       4.42446100
C        1.05842000       6.27451000       2.21211000  F       0.20114480       0.37461770       0.11831450      -2.01144800       3.74617700       1.18314500
C       11.47892000       2.72237000       6.33271000  F       0.12454870       0.10460940       0.10000000       1.24548700       1.04609400       0.34976100
C        6.59531000       2.46707000       3.93614000  F       0.14963130       0.49991860       0.10000000       1.49631300      -4.99918600      -0.76749000
C       10.23420000       3.17802000       6.10431000  F       0.11154610       0.10000000       0.10000000      -1.11546100       0.02774600       0.13445000
C        8.85656000       6.08400000       3.23398000  F       0.10000000       0.17589780       0.27249390       0.98234100       1.75897800      -2.72493900
C        4.49175000       8.94562000      10.98346000  F       1.13924880       0.18873620       0.48054940     -11.39248800      -1.88736200       4.80549400
C        0.41677000       5.89466000       8.39644000  F       0.20857880       0.20754280       0.28127040      -2.08578800       2.07542800      -2.81270400
C       10.47256000       4.80993000       9.98341000  F       0.29188640       0.10000000       0.85758010       2.91886400      -0.72192900       8.57580100
C       11.52829000      11.48785000       6.46921000  F       0.12167300       0.12730690       0.11274430      -1.21673000       1.27306900      -1.12744300
C        7.80792000       1.70507000       1.66993000  F       0.10000000       0.24274500       0.10000000       0.26024500      -2.42745000       0.96382200
C        0.91083000       0.37222000      11.18632000  F       0.10000000       0.18961810       0.29832680      -0.19159300      -1.89618100      -2.98326800
C        2.98546000       6.80797000       1.12278000  F       0.17874420       0.17957590       0.13822950       1.78744200      -1.79575900       1.38229500
C        6.42999000       9.01124000       3.95374000  F       0.10000000       0.13526990       0.14157680      -0.81850000      -1.35269900      -1.41576800
C        8.02346000       6.75714000       0.41331000  F       0.17197750       0.10056880       0.43220650      -1.71977500       1.00568800       4.32206500
C        7.60743000       5.76874000       8.07199000  F       0.10000000       0.23440960       0.14529290      -0.89388900       2.34409600      -1.45292900
C        5.62258000       7.74765000       3.86742000  F       0.23014830       0.68377010       0.10000000      -2.30148300       6.83770100       0.17922600
C        6.00786000       2.43318000       7.59189000  F       0.17489440       0.44239060       0.10000000      -1.74894400      -4.42390600       0.34702200
C        5.22016000       8.69827000       6.14673000  F       0.39644770       0.70136460       0.11608620       3.96447700       7.01364600      -1.16086200
C        0.33983000       5.50051000       6.40321000  F       0.32896180       0.24359230       0.10000000       3.28961800       2.43592300       0.61050000
C        5.46567000       9.88899000       1.70425000  F       0.21272760       0.10000000       0.10000000       2.12727600       0.74620700      -0.25808500
C       10.14533000       9.00464000       6.08872000  F       0.24728590       0.27886100       0.22517300      -2.47285900      -2.78861000       2.25173000
C        7.25351000       6.99696000       2.99637000  F       0.10000000       0.98722560       0.10000000      -0.18193400      -9.87225600      -0.39273700
C        7.43533000       1.92499000       4.73666000  F       0.82915820       0.16474180       0.33868490       8.29158200      -1.64741800       3.38684900
C        8.37381000       6.12019000       9.19219000  F       0.10000000       0.43896970       0.10956350      -0.58756700      -4.38969700      -1.09563500
C        8.62287000       8.26895000       8.56156000  F       0.10000000       0.21673500       0.10000000       0.08931800      -2.16735000      -0.74882300
C        8.62475000       5.45993000       5.34986000  F       0.17741770       0.10000000       0.41467710       1.77417700      -0.96731800       4.14677100
C        9.69853000       4.41279000       8.98621000  F       0.54948170       0.10517790       0.82426710       5.49481700      -1.05177900      -8.24267100
C       10.09632000      10.72693000       1.13846000  F       0.11260550       0.13239440       0.14320370       1.12605500      -1.32394400       1.43203700
C        7.03829000       7.48679000      11.41119000  F       0.35326180       0.44228900       0.14988110       3.53261800      -4.42289000       1.49881100
C        5.70819000      11.37390000       5.91260000  F       0.12648620       0.23589250       0.10000000      -1.26486200      -2.35892500       0.93103800
C        7.30408000       7.81648000       7.67747000  F       0.43877850       0.36274110       0.33510010       4.38778500      -3.62741100       3.35100100
C        1.85318000       6.42760000       6.33643000  F       0.30748360       0.10341500       0.32679260      -3.07483600      -1.03415000      -3.26792600
C        6.22537000       9.81574000       0.42163000  F       0.10000000       0.23251970       0.14730480       0.73462000       2.32519700       1.47304800
C        5.69803000      11.24799000       2.22116000  F       0.13136620       0.10000000       0.14528660       1.31366200       0.51514700       1.45286600